#     Step Nr.          Time[fs]        Kin.[a.u.]          Temp[K]            Pot.[a.u.]        Cons Qty[a.u.]        UsedTime[s]
         0            0.000000        71.038787151       298.000000000      -341.304174101      -270.265386950         0.000000000
         1            0.500000        67.808255773       284.448271582      -337.713187017      -270.064937232         1.084422119
         2            1.000000        60.713737676       254.687538360      -329.900930098      -269.669621844         0.303055719
         3            1.500000        55.406526114       232.424362018      -323.723054353      -269.469950557         0.284599170
         4            2.000000        54.454304947       228.429897597      -322.195685855      -269.622588425         0.287808940
         5            2.500000        55.894088280       234.469632374      -323.131557891      -269.896781546         0.273392934
         6            3.000000        56.037032077       235.069266081      -322.465114081      -269.953712510         0.272719640
         7            3.500000        53.994787798       226.502273041      -319.248758798      -269.738157055         0.272641297
         8            4.000000        52.465938954       220.088918117      -316.533006111      -269.533531041         0.273343913
         9            4.500000        53.982341030       226.450060201      -317.250484232      -269.618520177         0.273736905
        10            5.000000        57.299815208       240.366504226      -320.097664359      -269.923052989         0.272373285
        11            5.500000        58.132302366       243.858697479      -320.531371362      -270.091846086         0.272293352
        12            6.000000        54.531292814       228.752853339      -316.014906846      -269.895358113         0.286327105
        13            6.500000        49.244791622       206.576554751      -309.388859665      -269.510677083         0.272393953
        14            7.000000        47.465663258       199.113304411      -306.287189332      -269.345253762         0.272236980
        15            7.500000        51.125961800       214.467859427      -309.168363185      -269.592258492         0.272189416
        16            8.000000        56.669818526       237.723736539      -314.353435534      -270.003242546         0.272672255
        17            8.500000        58.442983933       245.161972926      -315.643932066      -270.150785491         0.518033754
        18            9.000000        54.563721318       228.888887392      -310.720691084      -269.897094010         0.272518545
        19            9.500000        48.334731357       202.758950736      -303.209124569      -269.532260333         0.272650708
        20           10.000000        44.884603855       188.286040418      -298.436505292      -269.438252660         0.272625398
        21           10.500000        45.299344650       190.025833027      -297.826060414      -269.664039544         0.271766871
        22           11.000000        46.530142167       195.188894996      -298.074742163      -269.884205696         0.272528656
        23           11.500000        45.533022744       191.006087263      -295.856849137      -269.793250378         0.271844026
        24           12.000000        43.570353765       182.772903971      -292.365900468      -269.478659829         0.272719331
        25           12.500000        44.829040837       188.052959590      -292.103745148      -269.329692455         0.288025878
        26           13.000000        50.763752500       212.948430733      -297.196244209      -269.581407843         0.301900323
        27           13.500000        57.790731774       242.425845927      -303.824948657      -270.007354528         0.281297415
        28           14.000000        59.857877385       251.097297350      -305.565594984      -270.146617965         0.273522712
        29           14.500000        55.476147922       232.716417944      -300.288161904      -269.825086667         0.272000469
        30           15.000000        49.331340910       206.939619621      -292.668903757      -269.361168803         0.272034571
        31           15.500000        47.552341424       199.476909907      -289.535642681      -269.228985733         0.272008501
        32           16.000000        51.729360556       216.999051703      -292.900692122      -269.545771633         0.271484125
        33           16.500000        57.409062026       240.824782770      -298.081516089      -269.945358251         0.271615289
        34           17.000000        58.910985925       247.125190474      -299.043970686      -269.992627310         0.270202968
        35           17.500000        55.845813797       234.267126159      -294.936832197      -269.670492273         0.280067656
        36           18.000000        52.430912469       219.941985813      -290.387030338      -269.374557190         0.524856981
        37           18.500000        52.593865591       220.625556469      -289.704186645      -269.441565915         0.272152450
        38           19.000000        55.379403591       232.310585978      -291.920937546      -269.757807021         0.274221018
        39           19.500000        56.457986364       236.835123617      -292.376704555      -269.896725068         0.271501213
        40           20.000000        54.169898804       227.236844704      -288.984415761      -269.634628662         0.271990001
        41           20.500000        51.929292561       217.837744758      -285.543342345      -269.238235955         0.272350449
        42           21.000000        55.091904575       231.104558817      -287.848884112      -269.180843440         0.273629110
        43           21.500000        64.086900263       268.837589215      -296.692907943      -269.596819404         0.271595791
        44           22.000000        72.812564197       305.440802146      -305.797520886      -270.096062125         0.272027962
        45           22.500000        74.359605241       311.930471376      -307.684422794      -270.176497285         0.271630280
        46           23.000000        68.159098755       285.920019802      -301.171009230      -269.771691813         0.273411974
        47           23.500000        60.051653755       251.910168189      -292.269437436      -269.311572255         0.272618227
        48           24.000000        56.172985175       235.639574568      -287.824616009      -269.246250698         0.272805769
        49           24.500000        57.710379056       242.088775000      -288.886932014      -269.566526779         0.273105022
        50           25.000000        59.861846286       251.113946462      -290.775241491      -269.844050751         0.272068858
        51           25.500000        59.035569300       247.647804209      -289.344728692      -269.739658602         0.273331195
        52           26.000000        56.722432627       237.944446980      -286.037817322      -269.397917253         0.271634616
        53           26.500000        57.306970131       240.396518354      -285.783278313      -269.264994378         0.271126643
        54           27.000000        62.191365752       260.886027723      -290.463081260      -269.550872625         0.522584129
        55           27.500000        67.441140668       282.908263572      -295.796088984      -269.956889566         0.291649621
        56           28.000000        67.435589891       282.884978665      -295.767135837      -270.004582875         0.282916453
        57           28.500000        62.132224143       260.637935096      -289.694165625      -269.594429911         0.284840349
        58           29.000000        57.136405170       239.681016858      -283.636710248      -269.143065058         0.274201266
        59           29.500000        58.469756829       245.274282316      -284.262754620      -269.138179359         0.273815911
        60           30.000000        65.795553831       276.005205438      -291.651634954      -269.599794205         0.272342265
        61           30.500000        72.565978667       304.406402618      -298.906247626      -270.047052491         0.274991404
        62           31.000000        72.993274791       306.198863467      -299.353750586      -270.029997192         0.273401111
        63           31.500000        67.274356530       282.208622218      -293.204774373      -269.613442104         0.273004595
        64           32.000000        61.207372146       256.758281372      -286.589009238      -269.276514607         0.274052262
        65           32.500000        59.593504908       249.988283512      -284.502650442      -269.359678350         0.283335332
        66           33.000000        60.912539223       255.521489266      -285.791698619      -269.692586817         0.273600683
        67           33.500000        61.135462922       256.456629982      -285.593668997      -269.817678102         0.274423659
        68           34.000000        58.311860234       244.611923241      -282.056111418      -269.545220654         0.273636274
        69           34.500000        56.461110912       236.848230756      -279.130930125      -269.189031269         0.273307808
        70           35.000000        59.865607793       251.129725572      -281.992007463      -269.207881677         0.272791605
        71           35.500000        67.997277650       285.241197836      -290.274764929      -269.658432366         0.518649165
        72           36.000000        74.359864889       311.931560569      -297.227506042      -270.091756308         0.273065798
        73           36.500000        73.416998263       307.976337432      -296.434449258      -270.041493093         0.272537045
        74           37.000000        66.207952020       277.735171068      -288.699888032      -269.547666713         0.270883650
        75           37.500000        59.633661855       250.156737544      -281.364274296      -269.119264141         0.271842424
        76           38.000000        59.525692001       249.703815728      -280.793972030      -269.183900513         0.270543959
        77           38.500000        64.949842679       272.457538969      -286.083998249      -269.632610073         0.271568153
        78           39.000000        69.381899286       291.049535281      -290.576849749      -269.955894238         0.271992099
        79           39.500000        68.458133549       287.174438300      -289.412775079      -269.822881647         0.273058962
        80           40.000000        64.031854598       268.606678628      -284.473291971      -269.438632459         0.271345440
        81           40.500000        61.473539460       257.874824358      -281.373803085      -269.279105706         0.271824036
        82           41.000000        62.871892492       263.740763521      -282.449528092      -269.524628039         0.271438159
        83           41.500000        64.614689917       271.051609517      -284.104199496      -269.848400716         0.270995788
        84           42.000000        62.651620550       262.816746636      -281.591493198      -269.804790938         0.271728124
        85           42.500000        57.586537454       241.569272923      -275.570481355      -269.372911042         0.272128623
        86           43.000000        55.436874505       232.551670223      -272.389574368      -269.013877406         0.272062641
        87           43.500000        60.933810113       255.610718342      -277.316040178      -269.164201133         0.271671467
        88           44.000000        71.311919044       299.145758638      -288.056437501      -269.727718508         0.270197012
        89           44.500000        78.641239187       329.891460957      -296.133152505      -270.149729292         0.515576512
        90           45.000000        77.398051123       324.676421992      -295.280704934      -270.021951128         0.279882658
        91           45.500000        70.059884376       293.893609130      -287.428384985      -269.515814488         0.270506818
        92           46.000000        63.281873963       265.460591282      -280.087278814      -269.172980490         0.272862028
        93           46.500000        61.926045430       259.773037778      -278.383152994      -269.305764146         0.272453375
        94           47.000000        63.947366241       268.252259142      -280.450784265      -269.675759163         0.289911613
        95           47.500000        64.582730640       270.917543820      -280.870877357      -269.799660289         0.282359675
        96           48.000000        62.130347127       260.630061217      -277.786963902      -269.525358938         0.269764811
        97           48.500000        60.254140736       252.759579088      -275.165957420      -269.205836699         0.269454692
        98           49.000000        63.093189588       264.669080811      -277.625167576      -269.272767492         0.271033708
        99           49.500000        69.342929571       290.886061557      -284.096944860      -269.709714655         0.270206932
       100           50.000000        72.965865730       306.083885431      -288.085219106      -270.040360797         0.271602239
       101           50.500000        69.609696700       292.005120703      -284.732624534      -269.866166350         0.271316778
       102           51.000000        62.431355559       261.892758909      -276.674780388      -269.334366313         0.270755876
       103           51.500000        58.529473468       245.524787133      -271.783488643      -268.993171864         0.268545035
       104           52.000000        62.232419567       261.058244021      -275.128958315      -269.201363007         0.280376729
       105           52.500000        70.482079293       295.664670973      -283.634805542      -269.734828922         0.271858934
       106           53.000000        75.685982942       317.494481836      -289.341563471      -270.034669783         0.516916361
       107           53.500000        74.108235834       310.876004000      -287.758067701      -269.826032042         0.271689095
       108           54.000000        68.677170397       288.093274099      -281.949562057      -269.398787656         0.271998122
       109           54.500000        65.425485329       274.452808246      -278.209316528      -269.247241390         0.272153150
       110           55.000000        66.040363745       277.032156451      -278.802197379      -269.502919993         0.272791695
       111           55.500000        67.178580821       281.806853519      -280.020757854      -269.800654578         0.271447111
       112           56.000000        64.983117251       272.597122185      -277.528931586      -269.726775644         0.272160441
       113           56.500000        60.692866268       254.599985066      -272.430473342      -269.322878345         0.272603527
       114           57.000000        59.624784990       250.119500060      -270.642047929      -269.056033761         0.273175254
       115           57.500000        65.351356243       274.141844781      -276.041296800      -269.284661190         0.271514520
       116           58.000000        74.008207027       310.456394014      -285.159891459      -269.822240462         0.273074038
       117           58.500000        78.174958674       327.935464823      -289.977350730      -270.114222931         0.274414439
       118           59.000000        74.276271757       311.580896457      -286.199401052      -269.849827805         0.272288598
       119           59.500000        66.357469799       278.362381920      -277.819757007      -269.309801839         0.271988805
       120           60.000000        62.091332977       260.466401090      -272.859773886      -269.054472668         0.270762142
       121           60.500000        64.585434863       270.928887740      -275.138616143      -269.316750451         0.271478616
       122           61.000000        69.942094006       293.399491316      -280.816839758      -269.764304923         0.272172116
       123           61.500000        72.254356105       303.099179799      -283.255605175      -269.893481103         0.511564925
       124           62.000000        69.862559780       293.065853871      -280.498435402      -269.602844080         0.271265801
       125           62.500000        66.558456149       279.205497841      -276.768602205      -269.282895724         0.269497816
       126           63.000000        66.804374050       280.237096737      -276.727315644      -269.337984012         0.273025475
       127           63.500000        69.411323233       291.172965544      -279.555867823      -269.703081242         0.273235891
       128           64.000000        69.642861781       292.144244617      -279.906154497      -269.914340775         0.273348380
       129           64.500000        64.912115194       272.299276263      -274.726864432      -269.660212958         0.271286093
       130           65.000000        59.031140911       247.629227595      -267.798192633      -269.167938252         0.272752639
       131           65.500000        58.354787455       244.791998274      -266.379496021      -268.973451369         0.271533575
       132           66.000000        65.366608392       274.205825887      -273.327220444      -269.325015202         0.272528965
       133           66.500000        74.733890599       313.500557816      -283.365025098      -269.886775619         0.271959446
       134           67.000000        79.014072285       331.455455326      -288.091052359      -270.095466509         0.271347512
       135           67.500000        75.267489709       315.738948155      -284.413761995      -269.774529211         0.271386825
       136           68.000000        68.319753421       286.593948689      -277.108629726      -269.305271048         0.271543264
       137           68.500000        64.874868695       272.143031244      -273.139476203      -269.183454511         0.277530439
       138           69.000000        66.085651062       277.222131829      -274.375512743      -269.476209412         0.272196438
       139           69.500000        68.118538460       285.749873770      -276.567871553      -269.776866090         0.271526325
       140           70.000000        66.982030688       280.982347048      -275.312763391      -269.701103411         0.514124796
       141           70.500000        64.003822519       268.489087097      -271.712839241      -269.342787872         0.283700541
       142           71.000000        63.796971314       267.621368749      -270.982404113      -269.159025271         0.281127155
       143           71.500000        68.536475228       287.503073141      -275.751878679      -269.425174154         0.270969097
       144           72.000000        74.334386489       311.824681448      -282.023480937      -269.886653005         0.271192409
       145           72.500000        74.942871844       314.377211452      -282.965184432      -270.025955202         0.292368878
       146           73.000000        68.830294685       288.735613863      -276.583377229      -269.652731140         0.282086737
       147           73.500000        61.533257384       258.125334566      -268.463164750      -269.135594320         0.272073623
       148           74.000000        59.962197298       251.534908063      -266.263665265      -269.008016142         0.271949545
       149           74.500000        65.615138280       275.248381787      -271.906645660      -269.392572043         0.271990858
       150           75.000000        73.004642680       306.246550528      -279.687281476      -269.869413630         0.272587426
       151           75.500000        75.499135737       316.710678096      -282.482948010      -269.948047291         0.273052189
       152           76.000000        72.312130818       303.341538447      -279.086634838      -269.606697447         0.269878983
       153           76.500000        68.059083823       285.500468022      -274.504228567      -269.281681898         0.272228900
       154           77.000000        67.160305213       281.730189327      -273.522455909      -269.344945459         0.272563528
       155           77.500000        68.820576305       288.694846315      -275.249148077      -269.678557131         0.283344664
       156           78.000000        68.435469883       287.079366681      -274.820435413      -269.828949945         0.516620774
       157           78.500000        64.233708670       269.453434545      -270.060838917      -269.558026899         0.272382796
       158           79.000000        60.109435617       252.152556826      -264.962176023      -269.143840824         0.269971758
       159           79.500000        61.309320063       257.185941817      -265.588887317      -269.075698859         0.270599995
       160           80.000000        68.576829552       287.672355147      -272.890833983      -269.488577448         0.272464328
       161           80.500000        75.803119600       317.985857398      -280.678298559      -269.977925001         0.270791847
       162           81.000000        76.569219838       321.199564731      -281.670195583      -270.032619536         0.271112777
       163           81.500000        70.260584467       294.735524225      -275.090954465      -269.599930508         0.269227788
       164           82.000000        63.235763183       265.267161565      -267.368125491      -269.138318110         0.270278852
       165           82.500000        61.670621761       258.701563216      -265.365516977      -269.112528603         0.271552417
       166           83.000000        65.769855820       275.897405071      -269.528542696      -269.495333450         0.270309519
       167           83.500000        70.202544059       294.492051012      -274.220324557      -269.824432968         0.272030920
       168           84.000000        70.600086635       296.159698961      -274.543073923      -269.743514398         0.270746876
       169           84.500000        68.204049844       286.108584742      -271.631563623      -269.400242750         0.271668192
       170           85.000000        67.442129171       282.912410235      -270.470601404      -269.248322265         0.272071060
       171           85.500000        70.023107435       293.739333856      -273.250942582      -269.500310678         0.271532249
       172           86.000000        72.629875861       304.674444408      -276.252414249      -269.863748055         0.512890756
       173           86.500000        70.610780728       296.204559523      -274.165424849      -269.876134769         0.272905663
       174           87.000000        63.847737760       267.834328478      -266.885227005      -269.454905376         0.271907184
       175           87.500000        58.664916185       246.092954626      -260.654875010      -269.020774130         0.271157261
       176           88.000000        60.430604627       253.499825956      -261.883474763      -269.047204446         0.271501701
       177           88.500000        68.512687004       287.403284122      -270.162349273      -269.531409347         0.270879429
       178           89.000000        76.169409351       319.522403139      -278.248965011      -269.981477292         0.272622161
       179           89.500000        77.024275429       323.108473531      -279.416804895      -269.954202424         0.272301719
       180           90.000000        71.937977283       301.772004988      -274.056963512      -269.531274774         0.271329373
       181           90.500000        66.743773103       279.982882343      -268.417600524      -269.199434122         0.271022163
       182           91.000000        65.951889280       276.661015673      -267.432729087      -269.294106127         0.271817420
       183           91.500000        68.145104366       285.861314861      -269.777111592      -269.637698258         0.272468589
       184           92.000000        68.763641671       288.456011707      -270.436745736      -269.773543377         0.271024808
       185           92.500000        66.202329182       277.711583875      -267.426314040      -269.518629653         0.270983431
       186           93.000000        63.881888015       267.977585093      -264.466015089      -269.183624842         0.271582089
       187           93.500000        66.093598297       277.255469618      -266.419952943      -269.206945427         0.513319444
       188           94.000000        72.274098081       303.181995245      -272.864856433      -269.626353564         0.270529415
       189           94.500000        76.396903350       320.476715770      -277.546075687      -270.002920587         0.270316146
       190           95.000000        73.678762650       309.074410620      -274.925409861      -269.907051005         0.272335537
       191           95.500000        65.888953558       276.397007155      -266.487837661      -269.408865115         0.272748929
       192           96.000000        59.763239131       250.700300152      -259.631307732      -269.013027689         0.270858370
       193           96.500000        60.958749171       255.715334982      -260.244275966      -269.114776741         0.271619882
       194           97.000000        67.451600351       282.952140805      -266.863119944      -269.576490930         0.269706994
       195           97.500000        72.947318583       306.006082165      -272.621892020      -269.891829030         0.272105847
       196           98.000000        73.159051913       306.894280496      -272.787302423      -269.757755008         0.271349661
       197           98.500000        69.788924179       292.756960519      -269.286510806      -269.394493106         0.278412703
       198           99.000000        68.324198293       286.612594441      -267.439654795      -269.259270364         0.271419372
       199           99.500000        69.924848171       293.327146911      -269.237494576      -269.504873763         0.272629369
       200          100.000000        71.547750756       300.135047072      -271.093970277      -269.806996663         0.272087976
       201          100.500000        69.194732459       290.264390763      -268.611470386      -269.756047361         0.271717288
       202          101.000000        63.852654018       267.854951649      -262.591073284      -269.354781545         0.282254584
       203          101.500000        61.113470200       256.364372900      -258.939657235      -269.037892006         0.520699278
       204          102.000000        64.798815073       271.823994556      -262.301390907      -269.188611554         0.270211823
       205          102.500000        72.438743171       303.872663521      -270.391505695      -269.689360529         0.271121673
       206          103.000000        77.312503034       324.317557044      -275.727309799      -270.026768086         0.270339057
       207          103.500000        74.833351462       313.917785342      -273.312721887      -269.854172915         0.271251488
       208          104.000000        67.671826521       283.875965682      -265.739238879      -269.368892970         0.271652672
       209          104.500000        62.721841451       263.111315692      -260.211270152      -269.084292365         0.269325525
       210          105.000000        63.723073185       267.311374119      -260.980651817      -269.264582983         0.303846736
       211          105.500000        68.093508300       285.644874967      -265.436473492      -269.652310229         0.294451367
       212          106.000000        70.460050999       295.572264673      -267.847372021      -269.785046685         0.270725418
       213          106.500000        69.146544953       290.062249405      -266.208560416      -269.535402616         0.271858849
       214          107.000000        67.564394769       283.425301146      -264.134086730      -269.244329520         0.270216469
       215          107.500000        69.414731111       291.187261221      -265.842076832      -269.303224954         0.270320076
       216          108.000000        73.643112706       308.924862974      -270.416128756      -269.678780540         0.516333386
       217          108.500000        75.099821329       315.035597506      -272.319734287      -269.933788406         0.270370532
       218          109.000000        70.743371150       296.760761949      -267.863996849      -269.733423750         0.270874053
       219          109.500000        63.614914932       266.857661993      -260.081244620      -269.247990884         0.269224066
       220          110.000000        60.534675307       253.936391159      -256.163414253      -268.983946114         0.287396532
       221          110.500000        64.524047565       270.671374690      -260.016316376      -269.229637427         0.271437556
       222          111.000000        72.141852179       302.627238041      -267.979084857      -269.731093765         0.270186689
       223          111.500000        76.227408811       319.765704577      -272.564872169      -269.968866336         0.271605805
       224          112.000000        73.981410228       310.343984350      -270.223070274      -269.730276925         0.270146087
       225          112.500000        68.627131142       287.883364857      -264.464787772      -269.321459490         0.271763735
       226          113.000000        65.918153053       276.519495864      -261.324414076      -269.198792263         0.270489030
       227          113.500000        67.253883875       282.122741653      -262.659706326      -269.454487275         0.270096038