#     Step Nr.          Time[fs]        Kin.[a.u.]          Temp[K]            Pot.[a.u.]        Cons Qty[a.u.]        UsedTime[s]
         0            0.000000        71.590273250       300.313424316      -387.485379684      -315.894634578         0.000000000
         1            0.500000        71.661530823       300.612342098      -387.560885185      -315.897022172         7.198538233
         2            1.000000        71.821416761       301.283046251      -387.729683423      -315.904039112         0.977942601
         3            1.500000        71.964089484       301.881542837      -387.879568074      -315.909312178         0.901550200
         4            2.000000        72.007900071       302.065323492      -387.924409937      -315.908355823         0.920374990
         5            2.500000        71.960250686       301.865439492      -387.873450960      -315.903010139         0.913976561
         6            3.000000        71.891031242       301.575071443      -387.802476451      -315.899174135         0.922530841
         7            3.500000        71.852387043       301.412963221      -387.767055413      -315.900274637         0.896898285
         8            4.000000        71.834786475       301.339130750      -387.754687963      -315.903344691         0.910848312
         9            4.500000        71.802604695       301.204131678      -387.724777164      -315.903413278         0.904257584
        10            5.000000        71.759281813       301.022396889      -387.679772660      -315.899491988         0.892278939
        11            5.500000        71.757621465       301.015431911      -387.677336303      -315.896440472         0.895607736
        12            6.000000        71.838185784       301.353390482      -387.762069645      -315.898296033         0.918933142
        13            6.500000        71.969986510       301.906280219      -387.902028883      -315.904097058         0.992774904
        14            7.000000        72.069979575       302.325740270      -388.007705292      -315.907372338         0.958044693
        15            7.500000        72.085519958       302.390930491      -388.022929595      -315.904594760         0.974861383
        16            8.000000        72.048433339       302.235356151      -387.981917307      -315.898155528         0.914262027
        17            8.500000        72.039955776       302.199793692      -387.972900244      -315.895052261         0.922690723
        18            9.000000        72.104458704       302.470376474      -388.042905552      -315.897939069         0.919705369
        19            9.500000        72.204798581       302.891291367      -388.151454824      -315.903476072         0.923491366
        20           10.000000        72.265432582       303.145644417      -388.217531053      -315.906184508         0.962439697
        21           10.500000        72.253160926       303.094166154      -388.205079009      -315.903208198         0.916082826
        22           11.000000        72.205980325       302.896248654      -388.156681732      -315.899136046         0.919074979
        23           11.500000        72.183080139       302.800184857      -388.135903388      -315.898345252         0.922907535
        24           12.000000        72.200327751       302.872536719      -388.158449004      -315.900673377         0.911608435
        25           12.500000        72.226721158       302.983254196      -388.189620197      -315.902422473         0.985800840
        26           13.000000        72.238822412       303.034017643      -388.202993470      -315.900606026         0.932111174
        27           13.500000        72.261838382       303.130567140      -388.225523059      -315.896970828         0.959088307
        28           14.000000        72.346460488       303.485547687      -388.312224854      -315.895838393         0.999017179
        29           14.500000        72.507574955       304.161405383      -388.480006227      -315.899222431         0.965671539
        30           15.000000        72.694979002       304.947545019      -388.676392776      -315.904841030         0.912318982
        31           15.500000        72.833133606       305.527088584      -388.820175788      -315.907015834         0.918402664
        32           16.000000        72.892778775       305.777293592      -388.880528595      -315.904176280         0.966060564
        33           16.500000        72.919780029       305.890560922      -388.905860911      -315.898866034         0.951474868
        34           17.000000        72.989130379       306.181478108      -388.976949456      -315.896866902         0.961784218
        35           17.500000        73.131860055       306.780213605      -389.126040231      -315.899388084         0.960529733
        36           18.000000        73.310629796       307.530133261      -389.312960133      -315.903585807         0.917705759
        37           18.500000        73.464200446       308.174345465      -389.471941922      -315.904922859         0.961923569
        38           19.000000        73.567552568       308.607896400      -389.577383696      -315.902811149         0.925336763
        39           19.500000        73.643467575       308.926351609      -389.655433040      -315.900613781         0.916169513
        40           20.000000        73.719519120       309.245379587      -389.736615022      -315.901279204         0.914495621
        41           20.500000        73.785977171       309.524163896      -389.810489907      -315.904094568         0.968985666
        42           21.000000        73.808775221       309.619799241      -389.838718286      -315.904785983         0.983552553
        43           21.500000        73.785495080       309.522141575      -389.816542136      -315.901016108         0.991652723
        44           22.000000        73.773574514       309.472136094      -389.804396579      -315.895785236         0.879347656
        45           22.500000        73.844388320       309.769192325      -389.879620949      -315.895055849         1.007708129
        46           23.000000        74.005292095       310.444166191      -390.051505373      -315.900753576         0.984840248
        47           23.500000        74.177865010       311.168090837      -390.236478019      -315.907716622         0.969959293
        48           24.000000        74.262586165       311.523486884      -390.328739330      -315.909661566         0.922589339
        49           24.500000        74.224457099       311.363539590      -390.292675878      -315.905978374         0.908005230
        50           25.000000        74.112064937       310.892066674      -390.180964336      -315.900767595         0.905596931
        51           25.500000        73.997092134       310.409768246      -390.070492316      -315.899244908         0.964318033
        52           26.000000        73.905897800       310.027217915      -389.987536346      -315.901334915         0.958578825
        53           26.500000        73.816591795       309.652588918      -389.906105168      -315.902942599         0.923220281
        54           27.000000        73.715106198       309.226867855      -389.808908714      -315.900853329         0.906875949
        55           27.500000        73.634310319       308.887937915      -389.730945407      -315.897203330         0.872630797
        56           28.000000        73.623529418       308.842713205      -389.726637711      -315.897092111         0.922021870
        57           28.500000        73.684528882       309.098599334      -389.798566509      -315.901331741         1.031613067
        58           29.000000        73.755052108       309.394436611      -389.880800506      -315.906243413         0.961027574
        59           29.500000        73.765506792       309.438292878      -389.898497298      -315.906578599         0.965339523
        60           30.000000        73.707954708       309.196868134      -389.843463859      -315.902090704         0.915143795
        61           30.500000        73.642753026       308.923354157      -389.780398916      -315.897130407         0.962373383
        62           31.000000        73.637018064       308.899296612      -389.781428740      -315.896711150         0.921995040
        63           31.500000        73.699698125       309.162232661      -389.855283350      -315.900611681         0.920173764
        64           32.000000        73.777521191       309.488691978      -389.945040639      -315.905177909         0.969295297
        65           32.500000        73.810468863       309.626903883      -389.986576288      -315.906304885         0.920531727
        66           33.000000        73.785266219       309.521181527      -389.966648665      -315.904032811         0.918069854
        67           33.500000        73.733019022       309.302010208      -389.919772278      -315.901779439         0.998918008
        68           34.000000        73.682857868       309.091589612      -389.877865813      -315.902340347         0.948665548
        69           34.500000        73.630935089       308.873779194      -389.834926287      -315.903566585         0.939633772
        70           35.000000        73.559296634       308.573263649      -389.770269378      -315.902735624         1.040225863
        71           35.500000        73.476451087       308.225735574      -389.691879280      -315.899332214         0.926547866
        72           36.000000        73.426074300       308.014410424      -389.646456262      -315.896387484         0.969335731
        73           36.500000        73.447520152       308.104373445      -389.676614541      -315.897162312         0.958650418
        74           37.000000        73.527900789       308.441561490      -389.769668583      -315.901854673         0.950090885
        75           37.500000        73.600730334       308.747073526      -389.855407265      -315.906736558         0.964847777
        76           38.000000        73.601655057       308.750952637      -389.864712204      -315.907048118         0.963157967
        77           38.500000        73.528500236       308.444076106      -389.795524856      -315.902917405         0.916283302
        78           39.000000        73.441496747       308.079105913      -389.712432285      -315.898712774         0.917628326
        79           39.500000        73.401721520       307.912253153      -389.680564668      -315.898493589         0.905456815
        80           40.000000        73.413638031       307.962241626      -389.703926843      -315.901801521         0.970522106
        81           40.500000        73.430753006       308.034037085      -389.732050374      -315.904661626         0.917216271
        82           41.000000        73.411103802       307.951610810      -389.720349078      -315.904455136         0.922928914
        83           41.500000        73.357198525       307.725484023      -389.672172631      -315.902032140         0.905375674
        84           42.000000        73.298979662       307.481262215      -389.621183694      -315.901121003         0.978850145
        85           42.500000        73.246233921       307.259999556      -389.578849630      -315.903408580         0.958700035
        86           43.000000        73.171564345       306.946768792      -389.514689455      -315.905817811         0.960048132
        87           43.500000        73.047943682       306.428193531      -389.398353009      -315.905036693         0.963508576
        88           44.000000        72.896664884       305.793595395      -389.250637457      -315.900582586         0.903565045
        89           44.500000        72.783119465       305.317284692      -389.141611831      -315.897142199         0.960775644
        90           45.000000        72.756611172       305.206085278      -389.124321862      -315.898458338         0.918193039
        91           45.500000        72.798430855       305.381514310      -389.178963247      -315.903430866         0.922270704
        92           46.000000        72.836380811       305.540710254      -389.228646075      -315.907364303         0.919348083
        93           46.500000        72.810971171       305.434119575      -389.210356430      -315.906738384         0.963435732
        94           47.000000        72.724616065       305.071869279      -389.128059445      -315.903113524         0.962265059
        95           47.500000        72.627149921       304.663009386      -389.035289753      -315.900199038         0.914099857
        96           48.000000        72.559601529       304.379651216      -388.975829331      -315.900752757         0.912118029
        97           48.500000        72.519056325       304.209568484      -388.944974522      -315.902986771         0.923216973
        98           49.000000        72.479397860       304.043205531      -388.913201393      -315.903494856         0.924317688
        99           49.500000        72.437135693       303.865920329      -388.876285120      -315.901545021         1.007545669
       100           50.000000        72.422565008       303.804797886      -388.867068324      -315.899685455         0.928319357
       101           50.500000        72.460444486       303.963698182      -388.913717913      -315.901320895         0.927171189
       102           51.000000        72.529327053       304.252653072      -388.993361211      -315.905019679         0.923171151
       103           51.500000        72.573427082       304.437647909      -389.046525718      -315.907091260         0.918900806
       104           52.000000        72.558647741       304.375650179      -389.036685859      -315.905108562         0.915518276
       105           52.500000        72.511073719       304.176082320      -388.991072621      -315.900222300         0.908691183
       106           53.000000        72.493644090       304.102966918      -388.977811649      -315.897620455         0.960828979
       107           53.500000        72.543068497       304.310296942      -389.035794634      -315.899480337         0.907301296
       108           54.000000        72.631898105       304.682927503      -389.136286633      -315.904507721         0.879581321
       109           54.500000        72.694783056       304.946723045      -389.208869071      -315.907628299         0.919298742
       110           55.000000        72.689847681       304.926019683      -389.209550344      -315.906726522         0.803067423
       111           55.500000        72.629742091       304.673883257      -389.152989183      -315.903815638         0.905450903
       112           56.000000        72.554263191       304.357257468      -389.082749321      -315.902667167         0.954000808
       113           56.500000        72.483887635       304.062039648      -389.019464763      -315.903441183         1.029804625
       114           57.000000        72.409700832       303.750834062      -388.952452851      -315.904371595         0.961956594
       115           57.500000        72.324742473       303.394442969      -388.871933971      -315.902641775         0.971626427
       116           58.000000        72.251360846       303.086615014      -388.801642235      -315.899639767         0.958911315
       117           58.500000        72.226723877       302.983265603      -388.782088247      -315.898707168         0.953311089
       118           59.000000        72.259832179       303.122151334      -388.824106735      -315.901672796         0.910814833
       119           59.500000        72.308997689       303.328395311      -388.883833940      -315.906354491         0.916118678
       120           60.000000        72.310735101       303.335683568      -388.893808111      -315.908773012         0.906654753
       121           60.500000        72.236821051       303.025622150      -388.823314032      -315.906439509         0.959591456
       122           61.000000        72.122488583       302.546009858      -388.710284219      -315.902059417         0.917342078
       123           61.500000        72.035363430       302.180529300      -388.626142349      -315.899434219         0.914873987
       124           62.000000        72.016437668       302.101137784      -388.613616257      -315.900297688         0.914865408
       125           62.500000        72.051517537       302.248294024      -388.657223376      -315.903354973         0.918453053
       126           63.000000        72.095788185       302.434004589      -388.708554744      -315.905005773         0.902490269
       127           63.500000        72.119224698       302.532318214      -388.736548572      -315.904209375         1.030967850
       128           64.000000        72.124304320       302.553626680      -388.745790818      -315.903072551         0.958837323
       129           64.500000        72.122095673       302.544361646      -388.749663225      -315.903906855         0.963421714
       130           65.000000        72.100996314       302.455852125      -388.735977242      -315.906125142         0.968055934
       131           65.500000        72.032536971       302.168672613      -388.673434253      -315.906899509         0.917661574
       132           66.000000        71.914118427       301.671919676      -388.556660367      -315.903459975         0.915258389
       133           66.500000        71.796512660       301.178576251      -388.438760088      -315.898144103         0.920440048
       134           67.000000        71.752045590       300.992041721      -388.397437429      -315.896330448         0.958236862
       135           67.500000        71.807531138       301.224797569      -388.461408990      -315.899915402         0.961567611
       136           68.000000        71.913279087       301.668398738      -388.577686872      -315.905591444         0.963361587
       137           68.500000        71.984949250       301.969047289      -388.656864909      -315.908285182         0.913458761
       138           69.000000        71.976988469       301.935652677      -388.651638983      -315.906244152         0.968840864
       139           69.500000        71.913501931       301.669333540      -388.588915475      -315.902272323         0.936205931
       140           70.000000        71.850118708       301.403447802      -388.528471489      -315.900520408         1.007116515
       141           70.500000        71.814411266       301.253658959      -388.499293190      -315.902402221         0.973981496
       142           71.000000        71.791157465       301.156111788      -388.482292529      -315.904050456         1.039357547
       143           71.500000        71.761775294       301.032856772      -388.456815738      -315.903392490         0.960955132
       144           72.000000        71.741296018       300.946948430      -388.438532932      -315.901066547         0.958221748
       145           72.500000        71.761956924       301.033618691      -388.463618387      -315.901006991         0.951333337
       146           73.000000        71.823671032       301.292502673      -388.533276419      -315.904499712         0.914372664
       147           73.500000        71.876764546       301.515224199      -388.594679632      -315.908385606         0.918525442
       148           74.000000        71.864528183       301.463893987      -388.587080677      -315.908624942         0.917107955
       149           74.500000        71.781025553       301.113609517      -388.503862729      -315.904540531         0.913347010
       150           75.000000        71.680743659       300.692937862      -388.403237996      -315.899862504         0.961041123
       151           75.500000        71.629154646       300.476527553      -388.354740178      -315.898654448         0.916283339
       152           76.000000        71.644961071       300.542833786      -388.377930144      -315.901772037         0.914746337
       153           76.500000        71.691032371       300.736097891      -388.432118788      -315.905651694         0.915737681
       154           77.000000        71.718155675       300.849877205      -388.464722012      -315.906918374         0.916225664
       155           77.500000        71.711625128       300.822482270      -388.460866627      -315.905403600         0.959355623
       156           78.000000        71.693086765       300.744715848      -388.444972211      -315.903881066         1.029222008
       157           78.500000        71.684305690       300.707880192      -388.440616230      -315.904162649         0.962490123
       158           79.000000        71.680458598       300.691742061      -388.442342370      -315.905614072         0.915158570
       159           79.500000        71.662520589       300.616494059      -388.428485681      -315.905594588         0.957797002
       160           80.000000        71.629782069       300.479159522      -388.397473722      -315.903241834         0.970637828
       161           80.500000        71.611366285       300.401907306      -388.380651134      -315.900777456         0.916035268
       162           81.000000        71.639251548       300.518882957      -388.412584976      -315.900788016         0.905132547
       163           81.500000        71.708005399       300.807297899      -388.488702417      -315.904128175         0.967478033
       164           82.000000        71.765978380       301.050488261      -388.554990929      -315.908429810         0.916944485
       165           82.500000        71.755660390       301.007205415      -388.549566690      -315.909317845         0.916369516
       166           83.000000        71.668095847       300.639881661      -388.462487968      -315.905809795         0.871279385
       167           83.500000        71.554785241       300.164555969      -388.348722380      -315.901378758         0.914647948
       168           84.000000        71.482270302       299.860363675      -388.278175679      -315.899392607         0.959307060
       169           84.500000        71.475669839       299.832675449      -388.277470604      -315.901354780         1.031481061
       170           85.000000        71.507234353       299.965085159      -388.315491265      -315.903895531         0.963124931
       171           85.500000        71.535158563       300.082224186      -388.347839340      -315.904418602         0.960250128
       172           86.000000        71.545577717       300.125931408      -388.360734375      -315.903006646         0.918256249
       173           86.500000        71.553002058       300.157075711      -388.371276820      -315.902248949         0.913609628
       174           87.000000        71.565298384       300.208657462      -388.389277063      -315.904087792         0.914025970
       175           87.500000        71.561550453       300.192935299      -388.391627625      -315.906330945         0.915954348
       176           88.000000        71.515264102       299.998769083      -388.348862880      -315.906008096         0.913962439
       177           88.500000        71.436878467       299.669949854      -388.270837001      -315.902537775         0.961730178
       178           89.000000        71.379433679       299.428975205      -388.214122735      -315.899455719         0.967694446
       179           89.500000        71.391638195       299.480171823      -388.230754538      -315.900087302         0.966870684
       180           90.000000        71.466540479       299.794378772      -388.313831411      -315.904478219         0.957702503
       181           90.500000        71.543005829       300.115142616      -388.398061389      -315.908465430         0.960091945
       182           91.000000        71.560367425       300.187972628      -388.419553408      -315.908822094         0.976309817
       183           91.500000        71.510568150       299.979070076      -388.370290492      -315.905590241         0.916695669
       184           92.000000        71.437512187       299.672608242      -388.297767193      -315.902364241         0.865555540
       185           92.500000        71.389825034       299.472565809      -388.253282588      -315.901820365         0.916772995
       186           93.000000        71.379742569       299.430270966      -388.248550533      -315.903436630         0.959507398
       187           93.500000        71.389080645       299.469443179      -388.262864028      -315.904688707         0.959945489
       188           94.000000        71.407199974       299.545451798      -388.283601323      -315.903592413         0.915696304
       189           94.500000        71.449385036       299.722413554      -388.328205524      -315.902303954         0.912447032
       190           95.000000        71.531099016       300.065194826      -388.415105614      -315.903784737         0.974462990
       191           95.500000        71.631427071       300.486060129      -388.522830319      -315.907472351         0.975842439
       192           96.000000        71.695554435       300.755067459      -388.593610453      -315.910407675         0.992421757
       193           96.500000        71.681559159       300.696358794      -388.581993701      -315.909059927         0.975055996
       194           97.000000        71.604458061       300.372928058      -388.503993397      -315.904429522         0.920229878
       195           97.500000        71.529090609       300.056769779      -388.428265245      -315.900337402         0.912808064
       196           98.000000        71.514368697       299.995012955      -388.417088982      -315.900152819         0.990675662
       197           98.500000        71.562592632       300.197307126      -388.472589148      -315.903697122         0.965265881
       198           99.000000        71.624433586       300.456723215      -388.541956927      -315.907485828         0.957613856
       199           99.500000        71.651861275       300.571779394      -388.573542415      -315.907896698         0.961964037
       200          100.000000        71.640042594       300.522201309      -388.563495907      -315.905913380         0.906507500
       201          100.500000        71.616043646       300.421528330      -388.542255533      -315.904909371         0.917778414
       202          101.000000        71.596296231       300.338690068      -388.527102723      -315.905735324         0.962002762
       203          101.500000        71.567576246       300.218212849      -388.503426641      -315.907005420         0.959875990
       204          102.000000        71.511725050       299.983923144      -388.450071314      -315.905724555         0.961876895
       205          102.500000        71.439634315       299.681510335      -388.378808145      -315.902776068         0.916585878
       206          103.000000        71.389417140       299.470854742      -388.330520874      -315.900933540         0.919092551
       207          103.500000        71.385720243       299.455346657      -388.332483212      -315.902824228         0.957586005
       208          104.000000        71.403971770       299.531909831      -388.359357937      -315.907680994         0.961718053
       209          104.500000        71.383521118       299.446121569      -388.346034891      -315.911043899         0.901999760
       210          105.000000        71.283028726       299.024566892      -388.248040315      -315.909782883         0.961901255
       211          105.500000        71.122872652       298.352729547      -388.087089854      -315.905243827         0.918412320
       212          106.000000        70.970142579       297.712043474      -387.934338044      -315.901500205         0.959110718
       213          106.500000        70.882219502       297.343215709      -387.849782598      -315.901173720         0.962378953
       214          107.000000        70.865946474       297.274952125      -387.839564120      -315.903562295         0.960148402
       215          107.500000        70.887879409       297.366958406      -387.867077657      -315.905502859         0.914818164
       216          108.000000        70.916538570       297.487180474      -387.898980732      -315.905130266         0.909025647
       217          108.500000        70.948591908       297.621640749      -387.933665905      -315.904167128         0.961416099
       218          109.000000        70.993918892       297.811782523      -387.982956655      -315.904555061         0.959701564
       219          109.500000        71.043322549       298.019025502      -388.038607748      -315.907242860         0.965271026
       220          110.000000        71.064468810       298.107731771      -388.065054236      -315.908997707         0.961465426
       221          110.500000        71.038056499       297.996934995      -388.040627373      -315.907452704         0.922313139
       222          111.000000        70.992541716       297.806005421      -387.994282989      -315.903110092         0.915157583
       223          111.500000        70.989041454       297.791322203      -387.991662738      -315.900495565         0.962590393
       224          112.000000        71.063230724       298.102538134      -388.071234440      -315.902398662         1.032140050
       225          112.500000        71.184489908       298.611207247      -388.200959843      -315.907393933         0.958976980
       226          113.000000        71.278442911       299.005329898      -388.301818216      -315.910830439         0.964658450
       227          113.500000        71.292287151       299.063404981      -388.317903847      -315.909603091         0.917118680