#     Step Nr.          Time[fs]        Kin.[a.u.]          Temp[K]            Pot.[a.u.]        Cons Qty[a.u.]        UsedTime[s]
         0            0.000000        70.963297742       297.683330127      -386.723604545      -315.759834947         0.000000000
         1            0.500000        70.922892188       297.513833214      -386.680243268      -315.755052978         3.145175107
         2            1.000000        70.954526751       297.646536772      -386.714277416      -315.755631753         0.717504922
         3            1.500000        71.051547993       298.053530350      -386.818292672      -315.760807096         0.692835998
         4            2.000000        71.143976973       298.441259885      -386.916408267      -315.764671987         0.726611100
         5            2.500000        71.178088773       298.584355183      -386.950842552      -315.763166208         0.746478621
         6            3.000000        71.173143123       298.563608717      -386.943171252      -315.758605171         0.730685044
         7            3.500000        71.190811262       298.637724644      -386.960850316      -315.756773655         0.726622809
         8            4.000000        71.253771284       298.901835100      -387.029728011      -315.760839924         0.727790911
         9            4.500000        71.310226422       299.138658275      -387.093170263      -315.765963321         0.742662463
        10            5.000000        71.289430199       299.051420376      -387.074685074      -315.766397024         0.755578637
        11            5.500000        71.187197191       298.622564005      -386.968665206      -315.760722386         0.739377260
        12            6.000000        71.082441556       298.183125490      -386.859741740      -315.754662093         0.713615701
        13            6.500000        71.061247233       298.094217605      -386.840112748      -315.754333927         0.741040669
        14            7.000000        71.129230296       298.379399174      -386.915796892      -315.760139202         0.738753781
        15            7.500000        71.208376553       298.711409132      -387.002269372      -315.765563057         0.732122239
        16            8.000000        71.222422608       298.770330808      -387.017884545      -315.765220474         0.965285275
        17            8.500000        71.176430360       298.577398318      -386.968394664      -315.759802754         0.731052794
        18            9.000000        71.142223032       298.433902294      -386.932368936      -315.756058391         0.736858428
        19            9.500000        71.168595976       298.544533929      -386.963057120      -315.758442235         0.743743271
        20           10.000000        71.222950686       298.772546038      -387.022179920      -315.761271174         0.733902518
        21           10.500000        71.234154693       298.819545629      -387.036639607      -315.762577879         0.711474735
        22           11.000000        71.185399217       298.615021700      -386.985050821      -315.757786728         0.716731694
        23           11.500000        71.144390518       298.442994659      -386.940229857      -315.752010507         0.717087690
        24           12.000000        71.190611728       298.636887618      -386.988620641      -315.752210266         0.727783833
        25           12.500000        71.320582194       299.182099616      -387.127553327      -315.759192147         0.740571901
        26           13.000000        71.440274170       299.684194460      -387.256110575      -315.766059586         0.746214952
        27           13.500000        71.456492028       299.752226613      -387.274702052      -315.766414008         0.747271392
        28           14.000000        71.367642036       299.379510544      -387.181863246      -315.760386780         0.752522040
        29           14.500000        71.255297372       298.908236874      -387.066415094      -315.755231491         0.954845641
        30           15.000000        71.190834397       298.637821693      -387.004480937      -315.755700008         0.708421044
        31           15.500000        71.166138638       298.534225663      -386.986136923      -315.759985002         0.725299366
        32           16.000000        71.124401516       298.359142969      -386.947806742      -315.761320026         0.724620327
        33           16.500000        71.047189431       298.035246654      -386.868562043      -315.757213323         0.711651798
        34           17.000000        70.989601292       297.793670660      -386.808179642      -315.752346567         0.711258616
        35           17.500000        71.019532850       297.919230297      -386.840618359      -315.752783729         0.713442232
        36           18.000000        71.131602478       298.389350220      -386.961159288      -315.759183614         0.697204713
        37           18.500000        71.238052859       298.835898015      -387.075989697      -315.765484640         0.728160694
        38           19.000000        71.252656129       298.897157147      -387.092712503      -315.765514223         0.737819117
        39           19.500000        71.177323870       298.581146498      -387.013421894      -315.759456902         0.735750228
        40           20.000000        71.095033050       298.235945441      -386.925377800      -315.751600352         0.712053679
        41           20.500000        71.076376401       298.157682824      -386.910024042      -315.752798529         0.717219085
        42           21.000000        71.104708501       298.276532909      -386.946012486      -315.758348140         0.696824919
        43           21.500000        71.103459831       298.271294871      -386.949810751      -315.761285144         0.692892857
        44           22.000000        71.031879253       297.971022119      -386.876914214      -315.757857874         0.732274413
        45           22.500000        70.937357649       297.574514252      -386.778535812      -315.751893074         0.986168798
        46           23.000000        70.903858293       297.433988088      -386.745210020      -315.749965588         0.745669149
        47           23.500000        70.956295074       297.653954691      -386.804623448      -315.754847490         0.742280584
        48           24.000000        71.031449548       297.969219553      -386.888046725      -315.761024045         0.726588059
        49           24.500000        71.049820166       298.046282302      -386.909017480      -315.761531696         0.724051304
        50           25.000000        71.006566063       297.864836036      -386.862418116      -315.756094583         0.745145768
        51           25.500000        70.976375337       297.738189218      -386.829624218      -315.751402620         0.744786516
        52           26.000000        71.025305205       297.943444701      -386.882095901      -315.752858460         0.735257156
        53           26.500000        71.131122085       298.387335026      -386.996488715      -315.759346945         0.712821782
        54           27.000000        71.205587371       298.699708816      -387.076948936      -315.763247856         0.717114147
        55           27.500000        71.194280512       298.652277770      -387.064510224      -315.760013746         0.726028070
        56           28.000000        71.138970048       298.420256379      -387.004785552      -315.753491289         0.715365168
        57           28.500000        71.130566950       298.385006292      -386.995898452      -315.750895228         0.737267502
        58           29.000000        71.206225928       298.702387493      -387.077981735      -315.755201926         0.717640009
        59           29.500000        71.307057663       299.125365675      -387.187544096      -315.761804358         0.948551681
        60           30.000000        71.343003286       299.276153662      -387.224736135      -315.760908097         0.739834365
        61           30.500000        71.290423906       299.055588870      -387.169707359      -315.756302205         0.719073471
        62           31.000000        71.212939429       298.730549900      -387.088825481      -315.750738479         0.737477873
        63           31.500000        71.184798232       298.612500636      -387.062848487      -315.750729617         0.741294250
        64           32.000000        71.207126715       298.706166196      -387.092241147      -315.755613902         0.733278096
        65           32.500000        71.213506745       298.732929731      -387.104356831      -315.759161631         0.717285048
        66           33.000000        71.155995889       298.491677931      -387.046314650      -315.756435585         0.712356966
        67           33.500000        71.068940207       298.126488797      -386.955412496      -315.750391735         0.715107586
        68           34.000000        71.034289653       297.981133483      -386.920482486      -315.747915769         0.740907084
        69           34.500000        71.086172256       298.198775370      -386.979117508      -315.752471944         0.736151092
        70           35.000000        71.163705624       298.524019432      -387.066055959      -315.759677124         0.733221326
        71           35.500000        71.169180641       298.546986537      -387.075824762      -315.761764819         0.759139463
        72           36.000000        71.070752937       298.134093001      -386.974704446      -315.756862614         0.720288567
        73           36.500000        70.936589946       297.571293820      -386.835738101      -315.749852860         0.917683929
        74           37.000000        70.861731927       297.257272556      -386.761443121      -315.748218456         0.693663485
        75           37.500000        70.869591281       297.290241696      -386.776083470      -315.752812366         0.698271144
        76           38.000000        70.898471547       297.411391276      -386.812036508      -315.757706822         0.706872426
        77           38.500000        70.884266173       297.351801275      -386.799122026      -315.756827487         0.713465091
        78           39.000000        70.838997814       297.161905424      -386.750654349      -315.751467817         0.728874128
        79           39.500000        70.832108606       297.133005942      -386.743217988      -315.748771915         0.720318954
        80           40.000000        70.897969210       297.409284027      -386.812855053      -315.750409688         0.741924260
        81           40.500000        70.981564331       297.759956485      -386.905438461      -315.757265072         0.735052567
        82           41.000000        70.991341114       297.800969027      -386.919255299      -315.759175278         0.733352434
        83           41.500000        70.902470421       297.428166115      -386.826863583      -315.753529733         0.743424453
        84           42.000000        70.790901539       296.960146770      -386.710434679      -315.746556301         0.739231721
        85           42.500000        70.754591870       296.807831650      -386.674954732      -315.745287885         0.726940647
        86           43.000000        70.808185225       297.032649957      -386.736417055      -315.751073257         0.962285124
        87           43.500000        70.870102058       297.292384350      -386.806574577      -315.757241305         0.735227276
        88           44.000000        70.855689484       297.231925163      -386.793832451      -315.756848527         0.717566706
        89           44.500000        70.769738910       296.871371839      -386.703733489      -315.750649172         0.734308615
        90           45.000000        70.696132955       296.562602847      -386.627565139      -315.746052677         0.749429539
        91           45.500000        70.701933394       296.586935060      -386.636977792      -315.747649567         0.737396009
        92           46.000000        70.767725488       296.862925752      -386.710112488      -315.752993469         0.715363812
        93           46.500000        70.820489444       297.084264819      -386.767409533      -315.755541021         0.735655494
        94           47.000000        70.825766726       297.106402445      -386.771435594      -315.752315878         0.735432073
        95           47.500000        70.829406708       297.121671772      -386.771918735      -315.747196878         0.738729723
        96           48.000000        70.899455751       297.415519906      -386.843836908      -315.747114120         0.736448701
        97           48.500000        71.035817523       297.987542732      -386.987917555      -315.752886078         0.718763590
        98           49.000000        71.154993257       298.487472000      -387.115328145      -315.759172040         0.718197376
        99           49.500000        71.172770933       298.562047421      -387.134730697      -315.758842247         0.920691386
       100           50.000000        71.095098227       298.236218850      -387.049857188      -315.749682787         0.720931992
       101           50.500000        71.015780910       297.903491317      -386.966355913      -315.743540837         0.711945452
       102           51.000000        71.021936103       297.929311683      -386.974843644      -315.743918328         0.721017260
       103           51.500000        71.109334757       298.295939549      -387.070236017      -315.749957376         0.747687154
       104           52.000000        71.197475040       298.665678467      -387.164871768      -315.754493561         0.768060286
       105           52.500000        71.223341076       298.774183679      -387.191098683      -315.752887381         0.744176243
       106           53.000000        71.206451892       298.703335386      -387.170911227      -315.747614316         0.738325529
       107           53.500000        71.212697661       298.729535709      -387.177440698      -315.745916211         0.717685856
       108           54.000000        71.263121955       298.941060148      -387.234143776      -315.750204809         0.733603299
       109           54.500000        71.299621904       299.094173473      -387.277956979      -315.755516919         0.733146612
       110           55.000000        71.252651024       298.897135729      -387.232466146      -315.754984856         0.747514870
       111           55.500000        71.132876060       298.394692758      -387.107832278      -315.748107402         0.743774954
       112           56.000000        71.035625829       297.986738597      -387.006503527      -315.742010041         0.744068369
       113           56.500000        71.045397117       298.027728090      -387.019471081      -315.743189695         0.973641310
       114           57.000000        71.144261852       298.442454922      -387.127956649      -315.750792998         0.749455828
       115           57.500000        71.227606068       298.792074859      -387.219259513      -315.756727874         0.737961415
       116           58.000000        71.212005024       298.726630173      -387.204238184      -315.755275560         0.720132358
       117           58.500000        71.116932627       298.327811790      -387.104628819      -315.748701535         0.716314413
       118           59.000000        71.032195880       297.972350333      -387.017670132      -315.744442729         0.736646805
       119           59.500000        71.013066599       297.892105079      -387.003341156      -315.747209178         0.739338223
       120           60.000000        71.025430980       297.943972313      -387.020281357      -315.749753949         0.720695112
       121           60.500000        71.000875963       297.840966684      -386.998643838      -315.750643105         0.716797091
       122           61.000000        70.931171880       297.548565624      -386.925651275      -315.745331450         0.749072786
       123           61.500000        70.887067872       297.363554095      -386.878632402      -315.740401904         0.752009250
       124           62.000000        70.937568940       297.575400593      -386.932413771      -315.741676083         0.744501714
       125           62.500000        71.063639958       298.104254827      -387.067847770      -315.749036707         0.734461635
       126           63.000000        71.168395950       298.543694840      -387.180039902      -315.754467818         0.959821712
       127           63.500000        71.176216394       298.576500754      -387.188261849      -315.752858530         0.738268137
       128           64.000000        71.111062120       298.303185651      -387.118345696      -315.746081976         0.721885536
       129           64.500000        71.065868036       298.113601375      -387.071086030      -315.742001288         0.718212467
       130           65.000000        71.097221877       298.245127332      -387.107544425      -315.745090864         0.737731691
       131           65.500000        71.164284846       298.526449209      -387.183218996      -315.751684725         0.734869745
       132           66.000000        71.179913279       298.592008789      -387.203242850      -315.754057071         0.733591959
       133           66.500000        71.113594433       298.313808427      -387.134358586      -315.749464568         0.738393031
       134           67.000000        71.027913646       297.954386830      -387.044587923      -315.743347991         0.736125339
       135           67.500000        71.008101595       297.871277426      -387.025936502      -315.742485415         0.737080548
       136           68.000000        71.066789256       298.117465793      -387.091896787      -315.747737195         0.739748485
       137           68.500000        71.133133842       298.395774126      -387.165480181      -315.752953822         0.736293033
       138           69.000000        71.137657814       298.414751698      -387.170651651      -315.751575702         0.960500784
       139           69.500000        71.093460439       298.229348509      -387.122521303      -315.745614962         0.720139958
       140           70.000000        71.078051888       298.164711310      -387.103459870      -315.739934196         0.718172297
       141           70.500000        71.135623804       298.406219246      -387.166933122      -315.743806592         0.718942001
       142           71.000000        71.214821081       298.738443225      -387.255171878      -315.750814182         0.726836596
       143           71.500000        71.218982941       298.755901779      -387.263894822      -315.753333845         0.718447041
       144           72.000000        71.115540260       298.321970959      -387.156958881      -315.747794276         0.721765544
       145           72.500000        70.980189043       297.754187297      -387.015842645      -315.739984799         0.716597341
       146           73.000000        70.923564524       297.516653589      -386.959070591      -315.737800076         0.726294894
       147           73.500000        70.980445758       297.755264192      -387.022952353      -315.742770548         0.737151351
       148           74.000000        71.082233613       298.182253192      -387.133329423      -315.749332176         0.720658049
       149           74.500000        71.138391490       298.417829391      -387.192690725      -315.750505991         0.730564322
       150           75.000000        71.131571900       298.389221949      -387.183426322      -315.746028417         0.950299218
       151           75.500000        71.120396757       298.342343438      -387.170585827      -315.742328107         0.715351038
       152           76.000000        71.153154150       298.479757147      -387.207412723      -315.744360171         0.712211136
       153           76.500000        71.199431702       298.673886454      -387.261239366      -315.749867088         0.744162831
       154           77.000000        71.184163992       298.609840068      -387.249645284      -315.751492674         0.716123160
       155           77.500000        71.085311490       298.195164553      -387.147521191      -315.746170191         0.732662562
       156           78.000000        70.977873997       297.744475933      -387.034531986      -315.738570571         0.731003862
       157           78.500000        70.965987088       297.694611639      -387.022889310      -315.736773366         0.730102111
       158           79.000000        71.073313375       298.144833764      -387.138646156      -315.743166326         0.715043429
       159           79.500000        71.212543148       298.728887544      -387.287997640      -315.751247312         0.726199932
       160           80.000000        71.270277755       298.971077953      -387.347153121      -315.750618802         0.748044837
       161           80.500000        71.217261191       298.748679222      -387.290721833      -315.745146114         0.740770806
       162           81.000000        71.126243170       298.366868506      -387.195238127      -315.738618269         0.718136910
       163           81.500000        71.082856407       298.184865745      -387.153737092      -315.738441565         0.708600502
       164           82.000000        71.093700190       298.230354237      -387.171502283      -315.743300946         0.935631894
       165           82.500000        71.094916076       298.235454750      -387.178162221      -315.746682610         0.706291988
       166           83.000000        71.045021350       298.026151787      -387.127341030      -315.743694502         0.703599330
       167           83.500000        70.987323671       297.784116289      -387.065812567      -315.737805918         0.725798801
       168           84.000000        71.004797968       297.857419066      -387.083798772      -315.736265278         0.724116221
       169           84.500000        71.118674534       298.335118899      -387.205152011      -315.741691186         0.720726326
       170           85.000000        71.250940885       298.889961885      -387.346826682      -315.749043683         0.718968030
       171           85.500000        71.300277381       299.096923129      -387.399402144      -315.750216728         0.708341170
       172           86.000000        71.250257264       298.887094166      -387.345052674      -315.743811653         0.717262097
       173           86.500000        71.187245888       298.622768287      -387.277030301      -315.736718777         0.707307652
       174           87.000000        71.204922100       298.696918075      -387.296906276      -315.736832132         0.676904310
       175           87.500000        71.301734506       299.103035608      -387.402565066      -315.743584387         0.685666412
       176           88.000000        71.386274017       299.457669682      -387.494913620      -315.749286340         0.668297652
       177           88.500000        71.381600655       299.438065433      -387.491035424      -315.747959218         0.922651645
       178           89.000000        71.307583501       299.127571509      -387.413010022      -315.741815998         0.742871929
       179           89.500000        71.249784094       298.885109270      -387.353983667      -315.738445436         0.713641178
       180           90.000000        71.256437428       298.913019286      -387.363336542      -315.738994158         0.707543995
       181           90.500000        71.285955990       299.036846448      -387.400850749      -315.744830437         0.699137930
       182           91.000000        71.264847290       298.948297740      -387.382391541      -315.745311463         0.705069646
       183           91.500000        71.185203772       298.614201829      -387.299351290      -315.739739983         0.701749690
       184           92.000000        71.123756882       298.356438797      -387.234562419      -315.734221155         0.705581181
       185           92.500000        71.155318203       298.488835112      -387.269607477      -315.735526900         0.722077604
       186           93.000000        71.258336736       298.920986677      -387.382723841      -315.743441666         0.717906695
       187           93.500000        71.324161918       299.197116166      -387.457006326      -315.749705862         0.699753381
       188           94.000000        71.265767966       298.952159879      -387.398973477      -315.747863582         0.695535224
       189           94.500000        71.108382537       298.291945089      -387.235816927      -315.739885089         0.697768871
       190           95.000000        70.963471909       297.684060738      -387.087354802      -315.734130814         0.720383063
       191           95.500000        70.916094810       297.485318951      -387.043604684      -315.735564648         0.697354227
       192           96.000000        70.948718071       297.622169988      -387.084665375      -315.741818312         0.704782888
       193           96.500000        70.980134114       297.753956880      -387.121251788      -315.744811987         0.920883082
       194           97.000000        70.968171397       297.703774579      -387.108146900      -315.741499604         0.694684617
       195           97.500000        70.955319986       297.649864305      -387.092673739      -315.736715160         0.714887474
       196           98.000000        71.005691226       297.861166188      -387.145675466      -315.737189790         0.712754887
       197           98.500000        71.111143974       298.303529018      -387.259670820      -315.743579151         0.713364512
       198           99.000000        71.183061487       298.605215176      -387.339227725      -315.749062899         0.701533157
       199           99.500000        71.146215787       298.450651465      -387.302485104      -315.747007003         0.722084742
       200          100.000000        71.028514077       297.956905569      -387.176590735      -315.736656630         0.733602807
       201          100.500000        70.940459861       297.587527694      -387.084917092      -315.730886752         0.697629511
       202          101.000000        70.962016149       297.677953983      -387.111210162      -315.733482161         0.695290200
       203          101.500000        71.060078683       298.089315666      -387.219084613      -315.741158131         0.695197511
       204          102.000000        71.127272460       298.371186266      -387.293262102      -315.746006438         0.695287686
       205          102.500000        71.098357075       298.249889363      -387.263663788      -315.743187643         0.695092387
       206          103.000000        71.014729225       297.899079611      -387.175399389      -315.736418254         0.923673589
       207          103.500000        70.967552637       297.701178950      -387.127910124      -315.733979679         0.664398510
       208          104.000000        70.989081290       297.791489310      -387.155912310      -315.738334860         0.692017313
       209          104.500000        71.019669013       297.919801489      -387.193917698      -315.743639878         0.696059227
       210          105.000000        70.986623633       297.781179707      -387.162124370      -315.742784756         0.698361985
       211          105.500000        70.898612526       297.411982669      -387.069998787      -315.736571956         0.696731400
       212          106.000000        70.841663167       297.173086289      -387.010328145      -315.731765413         0.699366376
       213          106.500000        70.879459091       297.331636087      -387.053031437      -315.734601179         0.697484199
       214          107.000000        70.974333774       297.729625082      -387.157726726      -315.742359990         0.725668225
       215          107.500000        71.023657526       297.936532868      -387.213211778      -315.746465071         0.702844422
       216          108.000000        70.973650023       297.726756821      -387.161068337      -315.742278491         0.738419786
       217          108.500000        70.881497683       297.340187757      -387.063125344      -315.734446972         0.720264651
       218          109.000000        70.853117945       297.221137837      -387.034041287      -315.731715186         0.697295446
       219          109.500000        70.925369545       297.524225458      -387.113636905      -315.737043976         0.696661931
       220          110.000000        71.025661900       297.944940998      -387.220928318      -315.742035086         0.920662865
       221          110.500000        71.053406986       298.061328620      -387.251927276      -315.743284571         0.694422998
       222          111.000000        70.989180241       297.791904400      -387.184279617      -315.737863911         0.687901977
       223          111.500000        70.908961686       297.455396269      -387.100294152      -315.732106166         0.698001381
       224          112.000000        70.891786685       297.383349006      -387.086023304      -315.733031249         0.694095928
       225          112.500000        70.930159111       297.544317168      -387.132234614      -315.738902078         0.691961609
       226          113.000000        70.946351427       297.612242175      -387.154225212      -315.742741439         0.711163804
       227          113.500000        70.893559871       297.390787327      -387.099868423      -315.739227171         0.698595520